
Linearized model: Predictions were generated on 14-Apr-2023 at 10:24:20 using OpenFAST, compiled as a 64-bit application using single precision at commit v3.2.1
 linked with  NWTC Subroutine Library; ElastoDyn; InflowWind; AeroDyn; ServoDyn; HydroDyn

Description from the FAST input file: FAST Certification Test #22: NREL 5.0 MW Baseline Wind Turbine with ITI Barge Configuration, for use in offshore analysis

Simulation information:
   Simulation time:                   184.9600 s
   Rotor Speed:                         1.2681 rad/s
   Azimuth:                             1.9210 rad
   Wind Speed:                         18.0000 m/s
   Number of continuous states:        14
   Number of discrete states:           0
   Number of constraint states:         0
   Number of inputs:                   67
   Number of outputs:                   5
   Jacobians included in this file?    No

Order of continuous states:
   Row/Column Operating Point                                    Rotating Frame? Derivative Order Description
   ---------- ---------------                                    --------------- ---------------- -----------
          1     1.2258197E-02                                           F               2         ED Platform pitch tilt rotation DOF (internal DOF index = DOF_P), rad
          2     1.3631846E-01                                           F               2         ED 1st tower fore-aft bending mode DOF (internal DOF index = DOF_TFA1), m
          3     3.4770051E-01                                           F               2         ED Variable speed generator DOF (internal DOF index = DOF_GeAz), rad
          4     2.5058293E-03                                           F               2         ED Drivetrain rotational-flexibility DOF (internal DOF index = DOF_DrTr), rad
          5     9.4220191E-01                                           T               2         ED 1st flapwise bending-mode DOF of blade 1 (internal DOF index = DOF_BF(1,1)), m
          6     5.4208320E-01                                           T               2         ED 1st flapwise bending-mode DOF of blade 2 (internal DOF index = DOF_BF(2,1)), m
          7     5.0719368E-01                                           T               2         ED 1st flapwise bending-mode DOF of blade 3 (internal DOF index = DOF_BF(3,1)), m
          8    -4.8907717E-05                                           F               2         ED First time derivative of Platform pitch tilt rotation DOF (internal DOF index = DOF_P), rad/s
          9     5.4785446E-03                                           F               2         ED First time derivative of 1st tower fore-aft bending mode DOF (internal DOF index = DOF_TFA1), m/s
         10     1.2664599E+00                                           F               2         ED First time derivative of Variable speed generator DOF (internal DOF index = DOF_GeAz), rad/s
         11     1.6241163E-03                                           F               2         ED First time derivative of Drivetrain rotational-flexibility DOF (internal DOF index = DOF_DrTr), rad/s
         12     1.2727084E-02                                           T               2         ED First time derivative of 1st flapwise bending-mode DOF of blade 1 (internal DOF index = DOF_BF(1,1)), m/s
         13     2.1712810E-02                                           T               2         ED First time derivative of 1st flapwise bending-mode DOF of blade 2 (internal DOF index = DOF_BF(2,1)), m/s
         14     2.7501866E-01                                           T               2         ED First time derivative of 1st flapwise bending-mode DOF of blade 3 (internal DOF index = DOF_BF(3,1)), m/s

Order of continuous state derivatives:
   Row/Column Operating Point                                    Rotating Frame? Derivative Order Description
   ---------- ---------------                                    --------------- ---------------- -----------
          1    -4.8907717E-05                                           F               2         First time derivative of ED Platform pitch tilt rotation DOF (internal DOF index = DOF_P), rad/s
          2     5.4785446E-03                                           F               2         First time derivative of ED 1st tower fore-aft bending mode DOF (internal DOF index = DOF_TFA1), m/s
          3     1.2664599E+00                                           F               2         First time derivative of ED Variable speed generator DOF (internal DOF index = DOF_GeAz), rad/s
          4     1.6241163E-03                                           F               2         First time derivative of ED Drivetrain rotational-flexibility DOF (internal DOF index = DOF_DrTr), rad/s
          5     1.2727084E-02                                           T               2         First time derivative of ED 1st flapwise bending-mode DOF of blade 1 (internal DOF index = DOF_BF(1,1)), m/s
          6     2.1712810E-02                                           T               2         First time derivative of ED 1st flapwise bending-mode DOF of blade 2 (internal DOF index = DOF_BF(2,1)), m/s
          7     2.7501866E-01                                           T               2         First time derivative of ED 1st flapwise bending-mode DOF of blade 3 (internal DOF index = DOF_BF(3,1)), m/s
          8    -1.8602586E-04                                           F               2         First time derivative of ED First time derivative of Platform pitch tilt rotation DOF (internal DOF index = DOF_P), rad/s/s
          9     3.7428178E-02                                           F               2         First time derivative of ED First time derivative of 1st tower fore-aft bending mode DOF (internal DOF index = DOF_TFA1), m/s/s
         10     4.3460584E-01                                           F               2         First time derivative of ED First time derivative of Variable speed generator DOF (internal DOF index = DOF_GeAz), rad/s/s
         11    -4.3335220E-01                                           F               2         First time derivative of ED First time derivative of Drivetrain rotational-flexibility DOF (internal DOF index = DOF_DrTr), rad/s/s
         12    -2.9579252E-01                                           T               2         First time derivative of ED First time derivative of 1st flapwise bending-mode DOF of blade 1 (internal DOF index = DOF_BF(1,1)), m/s/s
         13    -1.4466302E+00                                           T               2         First time derivative of ED First time derivative of 1st flapwise bending-mode DOF of blade 2 (internal DOF index = DOF_BF(2,1)), m/s/s
         14     2.0165971E-01                                           T               2         First time derivative of ED First time derivative of 1st flapwise bending-mode DOF of blade 3 (internal DOF index = DOF_BF(3,1)), m/s/s

Order of inputs:
     Column   Operating Point                                    Rotating Frame? Derivative Order Description
   ---------- ---------------                                    --------------- ---------------- -----------
          1     1.8000000E+01                                           F               0         IfW Extended input: horizontal wind speed (steady/uniform wind), m/s
          2     0.0000000E+00                                           F               0         IfW Extended input: vertical power-law shear exponent, -
          3     0.0000000E+00                                           F               0         IfW Extended input: propagation direction, rad
          4     2.9614955E-01                                           T               0         ED Blade 1 pitch command, rad
          5     2.9614955E-01                                           T               0         ED Blade 2 pitch command, rad
          6     2.9614955E-01                                           T               0         ED Blade 3 pitch command, rad
          7     0.0000000E+00                                           F               0         ED Yaw moment, Nm
          8     1.3747847E+00                                           F               0         ED Generator torque, Nm
          9     2.9614955E-01                                           F               0         ED Extended input: collective blade-pitch command, rad
         10     0.0000000E+00                                           T               0         AD User property on blade 1, node 1, -
         11     0.0000000E+00                                           T               0         AD User property on blade 1, node 2, -
         12     0.0000000E+00                                           T               0         AD User property on blade 1, node 3, -
         13     0.0000000E+00                                           T               0         AD User property on blade 1, node 4, -
         14     0.0000000E+00                                           T               0         AD User property on blade 1, node 5, -
         15     0.0000000E+00                                           T               0         AD User property on blade 1, node 6, -
         16     0.0000000E+00                                           T               0         AD User property on blade 1, node 7, -
         17     0.0000000E+00                                           T               0         AD User property on blade 1, node 8, -
         18     0.0000000E+00                                           T               0         AD User property on blade 1, node 9, -
         19     0.0000000E+00                                           T               0         AD User property on blade 1, node 10, -
         20     0.0000000E+00                                           T               0         AD User property on blade 1, node 11, -
         21     0.0000000E+00                                           T               0         AD User property on blade 1, node 12, -
         22     0.0000000E+00                                           T               0         AD User property on blade 1, node 13, -
         23     0.0000000E+00                                           T               0         AD User property on blade 1, node 14, -
         24     0.0000000E+00                                           T               0         AD User property on blade 1, node 15, -
         25     0.0000000E+00                                           T               0         AD User property on blade 1, node 16, -
         26     0.0000000E+00                                           T               0         AD User property on blade 1, node 17, -
         27     0.0000000E+00                                           T               0         AD User property on blade 1, node 18, -
         28     0.0000000E+00                                           T               0         AD User property on blade 1, node 19, -
         29     0.0000000E+00                                           T               0         AD User property on blade 2, node 1, -
         30     0.0000000E+00                                           T               0         AD User property on blade 2, node 2, -
         31     0.0000000E+00                                           T               0         AD User property on blade 2, node 3, -
         32     0.0000000E+00                                           T               0         AD User property on blade 2, node 4, -
         33     0.0000000E+00                                           T               0         AD User property on blade 2, node 5, -
         34     0.0000000E+00                                           T               0         AD User property on blade 2, node 6, -
         35     0.0000000E+00                                           T               0         AD User property on blade 2, node 7, -
         36     0.0000000E+00                                           T               0         AD User property on blade 2, node 8, -
         37     0.0000000E+00                                           T               0         AD User property on blade 2, node 9, -
         38     0.0000000E+00                                           T               0         AD User property on blade 2, node 10, -
         39     0.0000000E+00                                           T               0         AD User property on blade 2, node 11, -
         40     0.0000000E+00                                           T               0         AD User property on blade 2, node 12, -
         41     0.0000000E+00                                           T               0         AD User property on blade 2, node 13, -
         42     0.0000000E+00                                           T               0         AD User property on blade 2, node 14, -
         43     0.0000000E+00                                           T               0         AD User property on blade 2, node 15, -
         44     0.0000000E+00                                           T               0         AD User property on blade 2, node 16, -
         45     0.0000000E+00                                           T               0         AD User property on blade 2, node 17, -
         46     0.0000000E+00                                           T               0         AD User property on blade 2, node 18, -
         47     0.0000000E+00                                           T               0         AD User property on blade 2, node 19, -
         48     0.0000000E+00                                           T               0         AD User property on blade 3, node 1, -
         49     0.0000000E+00                                           T               0         AD User property on blade 3, node 2, -
         50     0.0000000E+00                                           T               0         AD User property on blade 3, node 3, -
         51     0.0000000E+00                                           T               0         AD User property on blade 3, node 4, -
         52     0.0000000E+00                                           T               0         AD User property on blade 3, node 5, -
         53     0.0000000E+00                                           T               0         AD User property on blade 3, node 6, -
         54     0.0000000E+00                                           T               0         AD User property on blade 3, node 7, -
         55     0.0000000E+00                                           T               0         AD User property on blade 3, node 8, -
         56     0.0000000E+00                                           T               0         AD User property on blade 3, node 9, -
         57     0.0000000E+00                                           T               0         AD User property on blade 3, node 10, -
         58     0.0000000E+00                                           T               0         AD User property on blade 3, node 11, -
         59     0.0000000E+00                                           T               0         AD User property on blade 3, node 12, -
         60     0.0000000E+00                                           T               0         AD User property on blade 3, node 13, -
         61     0.0000000E+00                                           T               0         AD User property on blade 3, node 14, -
         62     0.0000000E+00                                           T               0         AD User property on blade 3, node 15, -
         63     0.0000000E+00                                           T               0         AD User property on blade 3, node 16, -
         64     0.0000000E+00                                           T               0         AD User property on blade 3, node 17, -
         65     0.0000000E+00                                           T               0         AD User property on blade 3, node 18, -
         66     0.0000000E+00                                           T               0         AD User property on blade 3, node 19, -
         67     0.0000000E+00                                           F               0         HD Extended input: wave elevation at platform ref point, m

Order of outputs:
        Row   Operating Point                                    Rotating Frame? Derivative Order Description
   ---------- ---------------                                    --------------- ---------------- -----------
          1     1.1730988E+03                                           F               0         ED GenSpeed, (rpm)
          2     3.1805972E+03                                           T               0         ED RootMyb1, (kN-m)
          3     2.4729536E+03                                           T               0         ED RootMyb2, (kN-m)
          4     2.3009917E+03                                           T               0         ED RootMyb3, (kN-m)
          5     2.2256657E-02                                           F               0         ED NcIMUTAxs, (m/s^2)


Linearized state matrices:

A: 14 x 14
     0.0000000E+00   0.0000000E+00   0.0000000E+00   0.0000000E+00   0.0000000E+00   0.0000000E+00   0.0000000E+00   1.0000000E+00   0.0000000E+00   0.0000000E+00   0.0000000E+00   0.0000000E+00   0.0000000E+00   0.0000000E+00
     0.0000000E+00   0.0000000E+00   0.0000000E+00   0.0000000E+00   0.0000000E+00   0.0000000E+00   0.0000000E+00   0.0000000E+00   1.0000000E+00   0.0000000E+00   0.0000000E+00   0.0000000E+00   0.0000000E+00   0.0000000E+00
     0.0000000E+00   0.0000000E+00   0.0000000E+00   0.0000000E+00   0.0000000E+00   0.0000000E+00   0.0000000E+00   0.0000000E+00   0.0000000E+00   1.0000000E+00   0.0000000E+00   0.0000000E+00   0.0000000E+00   0.0000000E+00
     0.0000000E+00   0.0000000E+00   0.0000000E+00   0.0000000E+00   0.0000000E+00   0.0000000E+00   0.0000000E+00   0.0000000E+00   0.0000000E+00   0.0000000E+00   1.0000000E+00   0.0000000E+00   0.0000000E+00   0.0000000E+00
     0.0000000E+00   0.0000000E+00   0.0000000E+00   0.0000000E+00   0.0000000E+00   0.0000000E+00   0.0000000E+00   0.0000000E+00   0.0000000E+00   0.0000000E+00   0.0000000E+00   1.0000000E+00   0.0000000E+00   0.0000000E+00
     0.0000000E+00   0.0000000E+00   0.0000000E+00   0.0000000E+00   0.0000000E+00   0.0000000E+00   0.0000000E+00   0.0000000E+00   0.0000000E+00   0.0000000E+00   0.0000000E+00   0.0000000E+00   1.0000000E+00   0.0000000E+00
     0.0000000E+00   0.0000000E+00   0.0000000E+00   0.0000000E+00   0.0000000E+00   0.0000000E+00   0.0000000E+00   0.0000000E+00   0.0000000E+00   0.0000000E+00   0.0000000E+00   0.0000000E+00   0.0000000E+00   1.0000000E+00
    -9.5883925E-01   7.7680905E-02   2.3214363E-04   9.3857377E-03   2.3338993E-04   3.3197727E-04  -7.6320855E-04   1.3756410E-03   3.0820435E-04   1.7934544E-04   2.4492675E-04   9.4909308E-06   5.5465268E-06  -2.2438160E-05
     9.5165702E+01  -1.1108172E+01  -4.6851189E-02  -1.7888828E+01   5.5993439E-02   4.3544117E-02   2.6478683E-01  -5.5547638E+00  -1.0488189E-01  -2.4218969E-01  -3.6999587E-01   3.2231456E-03   3.5639359E-03   1.0178168E-02
    -6.1937968E-07  -7.0706659E-07   1.3667303E-16   1.7264697E+02  -6.7566494E-16  -1.2697684E-15   8.8556803E-17  -3.8769193E-13  -9.9300186E-11  -4.1905007E-05   1.2366934E+00  -2.2596350E-16  -8.2960372E-16  -6.8480880E-16
     1.3436294E-02  -3.8630774E-02   5.2141124E-04  -1.9909651E+02   2.6828741E-02   2.6795217E-02   2.8021085E-02   1.7071488E-02   4.3127041E-05   5.4703850E-02  -1.3714970E+00   2.9403289E-03   2.2560827E-03   2.4764917E-03
    -3.9325481E+01   3.6368672E+00  -1.1156148E+00   1.2137889E+03  -2.1904560E+01  -1.3099905E+00  -1.4888115E+00  -4.0863724E+02  -8.4063279E-01  -1.2288625E+02  -1.1418379E+02  -5.4517725E+00  -1.0735266E-01  -1.2100706E-01
     8.5900214E+01   4.2133708E+00  -4.2836414E+00   1.2078761E+03  -1.3024761E+00  -2.1842960E+01  -1.4442263E+00  -7.1624172E+02  -7.5113983E+00  -1.0822913E+02  -9.9546317E+01  -1.3487239E-01  -4.9654700E+00  -1.2157832E-01
    -1.1196819E+02   2.6601988E+01   2.9106201E+00   1.2687997E+03  -1.5087563E+00  -1.4833081E+00  -2.2963099E+01  -1.2294862E+03  -1.8776948E+01  -1.0909407E+02  -1.0002624E+02  -1.5055304E-01  -1.1708644E-01  -5.0305416E+00
B: 14 x 67
     0.0000000E+00   0.0000000E+00   0.0000000E+00   0.0000000E+00   0.0000000E+00   0.0000000E+00   0.0000000E+00   0.0000000E+00   0.0000000E+00   0.0000000E+00   0.0000000E+00   0.0000000E+00   0.0000000E+00   0.0000000E+00   0.0000000E+00   0.0000000E+00   0.0000000E+00   0.0000000E+00   0.0000000E+00   0.0000000E+00   0.0000000E+00   0.0000000E+00   0.0000000E+00   0.0000000E+00   0.0000000E+00   0.0000000E+00   0.0000000E+00   0.0000000E+00   0.0000000E+00   0.0000000E+00   0.0000000E+00   0.0000000E+00   0.0000000E+00   0.0000000E+00   0.0000000E+00   0.0000000E+00   0.0000000E+00   0.0000000E+00   0.0000000E+00   0.0000000E+00   0.0000000E+00   0.0000000E+00   0.0000000E+00   0.0000000E+00   0.0000000E+00   0.0000000E+00   0.0000000E+00   0.0000000E+00   0.0000000E+00   0.0000000E+00   0.0000000E+00   0.0000000E+00   0.0000000E+00   0.0000000E+00   0.0000000E+00   0.0000000E+00   0.0000000E+00   0.0000000E+00   0.0000000E+00   0.0000000E+00   0.0000000E+00   0.0000000E+00   0.0000000E+00   0.0000000E+00   0.0000000E+00   0.0000000E+00   0.0000000E+00
     0.0000000E+00   0.0000000E+00   0.0000000E+00   0.0000000E+00   0.0000000E+00   0.0000000E+00   0.0000000E+00   0.0000000E+00   0.0000000E+00   0.0000000E+00   0.0000000E+00   0.0000000E+00   0.0000000E+00   0.0000000E+00   0.0000000E+00   0.0000000E+00   0.0000000E+00   0.0000000E+00   0.0000000E+00   0.0000000E+00   0.0000000E+00   0.0000000E+00   0.0000000E+00   0.0000000E+00   0.0000000E+00   0.0000000E+00   0.0000000E+00   0.0000000E+00   0.0000000E+00   0.0000000E+00   0.0000000E+00   0.0000000E+00   0.0000000E+00   0.0000000E+00   0.0000000E+00   0.0000000E+00   0.0000000E+00   0.0000000E+00   0.0000000E+00   0.0000000E+00   0.0000000E+00   0.0000000E+00   0.0000000E+00   0.0000000E+00   0.0000000E+00   0.0000000E+00   0.0000000E+00   0.0000000E+00   0.0000000E+00   0.0000000E+00   0.0000000E+00   0.0000000E+00   0.0000000E+00   0.0000000E+00   0.0000000E+00   0.0000000E+00   0.0000000E+00   0.0000000E+00   0.0000000E+00   0.0000000E+00   0.0000000E+00   0.0000000E+00   0.0000000E+00   0.0000000E+00   0.0000000E+00   0.0000000E+00   0.0000000E+00
     0.0000000E+00   0.0000000E+00   0.0000000E+00   0.0000000E+00   0.0000000E+00   0.0000000E+00   0.0000000E+00   0.0000000E+00   0.0000000E+00   0.0000000E+00   0.0000000E+00   0.0000000E+00   0.0000000E+00   0.0000000E+00   0.0000000E+00   0.0000000E+00   0.0000000E+00   0.0000000E+00   0.0000000E+00   0.0000000E+00   0.0000000E+00   0.0000000E+00   0.0000000E+00   0.0000000E+00   0.0000000E+00   0.0000000E+00   0.0000000E+00   0.0000000E+00   0.0000000E+00   0.0000000E+00   0.0000000E+00   0.0000000E+00   0.0000000E+00   0.0000000E+00   0.0000000E+00   0.0000000E+00   0.0000000E+00   0.0000000E+00   0.0000000E+00   0.0000000E+00   0.0000000E+00   0.0000000E+00   0.0000000E+00   0.0000000E+00   0.0000000E+00   0.0000000E+00   0.0000000E+00   0.0000000E+00   0.0000000E+00   0.0000000E+00   0.0000000E+00   0.0000000E+00   0.0000000E+00   0.0000000E+00   0.0000000E+00   0.0000000E+00   0.0000000E+00   0.0000000E+00   0.0000000E+00   0.0000000E+00   0.0000000E+00   0.0000000E+00   0.0000000E+00   0.0000000E+00   0.0000000E+00   0.0000000E+00   0.0000000E+00
     0.0000000E+00   0.0000000E+00   0.0000000E+00   0.0000000E+00   0.0000000E+00   0.0000000E+00   0.0000000E+00   0.0000000E+00   0.0000000E+00   0.0000000E+00   0.0000000E+00   0.0000000E+00   0.0000000E+00   0.0000000E+00   0.0000000E+00   0.0000000E+00   0.0000000E+00   0.0000000E+00   0.0000000E+00   0.0000000E+00   0.0000000E+00   0.0000000E+00   0.0000000E+00   0.0000000E+00   0.0000000E+00   0.0000000E+00   0.0000000E+00   0.0000000E+00   0.0000000E+00   0.0000000E+00   0.0000000E+00   0.0000000E+00   0.0000000E+00   0.0000000E+00   0.0000000E+00   0.0000000E+00   0.0000000E+00   0.0000000E+00   0.0000000E+00   0.0000000E+00   0.0000000E+00   0.0000000E+00   0.0000000E+00   0.0000000E+00   0.0000000E+00   0.0000000E+00   0.0000000E+00   0.0000000E+00   0.0000000E+00   0.0000000E+00   0.0000000E+00   0.0000000E+00   0.0000000E+00   0.0000000E+00   0.0000000E+00   0.0000000E+00   0.0000000E+00   0.0000000E+00   0.0000000E+00   0.0000000E+00   0.0000000E+00   0.0000000E+00   0.0000000E+00   0.0000000E+00   0.0000000E+00   0.0000000E+00   0.0000000E+00
     0.0000000E+00   0.0000000E+00   0.0000000E+00   0.0000000E+00   0.0000000E+00   0.0000000E+00   0.0000000E+00   0.0000000E+00   0.0000000E+00   0.0000000E+00   0.0000000E+00   0.0000000E+00   0.0000000E+00   0.0000000E+00   0.0000000E+00   0.0000000E+00   0.0000000E+00   0.0000000E+00   0.0000000E+00   0.0000000E+00   0.0000000E+00   0.0000000E+00   0.0000000E+00   0.0000000E+00   0.0000000E+00   0.0000000E+00   0.0000000E+00   0.0000000E+00   0.0000000E+00   0.0000000E+00   0.0000000E+00   0.0000000E+00   0.0000000E+00   0.0000000E+00   0.0000000E+00   0.0000000E+00   0.0000000E+00   0.0000000E+00   0.0000000E+00   0.0000000E+00   0.0000000E+00   0.0000000E+00   0.0000000E+00   0.0000000E+00   0.0000000E+00   0.0000000E+00   0.0000000E+00   0.0000000E+00   0.0000000E+00   0.0000000E+00   0.0000000E+00   0.0000000E+00   0.0000000E+00   0.0000000E+00   0.0000000E+00   0.0000000E+00   0.0000000E+00   0.0000000E+00   0.0000000E+00   0.0000000E+00   0.0000000E+00   0.0000000E+00   0.0000000E+00   0.0000000E+00   0.0000000E+00   0.0000000E+00   0.0000000E+00
     0.0000000E+00   0.0000000E+00   0.0000000E+00   0.0000000E+00   0.0000000E+00   0.0000000E+00   0.0000000E+00   0.0000000E+00   0.0000000E+00   0.0000000E+00   0.0000000E+00   0.0000000E+00   0.0000000E+00   0.0000000E+00   0.0000000E+00   0.0000000E+00   0.0000000E+00   0.0000000E+00   0.0000000E+00   0.0000000E+00   0.0000000E+00   0.0000000E+00   0.0000000E+00   0.0000000E+00   0.0000000E+00   0.0000000E+00   0.0000000E+00   0.0000000E+00   0.0000000E+00   0.0000000E+00   0.0000000E+00   0.0000000E+00   0.0000000E+00   0.0000000E+00   0.0000000E+00   0.0000000E+00   0.0000000E+00   0.0000000E+00   0.0000000E+00   0.0000000E+00   0.0000000E+00   0.0000000E+00   0.0000000E+00   0.0000000E+00   0.0000000E+00   0.0000000E+00   0.0000000E+00   0.0000000E+00   0.0000000E+00   0.0000000E+00   0.0000000E+00   0.0000000E+00   0.0000000E+00   0.0000000E+00   0.0000000E+00   0.0000000E+00   0.0000000E+00   0.0000000E+00   0.0000000E+00   0.0000000E+00   0.0000000E+00   0.0000000E+00   0.0000000E+00   0.0000000E+00   0.0000000E+00   0.0000000E+00   0.0000000E+00
     0.0000000E+00   0.0000000E+00   0.0000000E+00   0.0000000E+00   0.0000000E+00   0.0000000E+00   0.0000000E+00   0.0000000E+00   0.0000000E+00   0.0000000E+00   0.0000000E+00   0.0000000E+00   0.0000000E+00   0.0000000E+00   0.0000000E+00   0.0000000E+00   0.0000000E+00   0.0000000E+00   0.0000000E+00   0.0000000E+00   0.0000000E+00   0.0000000E+00   0.0000000E+00   0.0000000E+00   0.0000000E+00   0.0000000E+00   0.0000000E+00   0.0000000E+00   0.0000000E+00   0.0000000E+00   0.0000000E+00   0.0000000E+00   0.0000000E+00   0.0000000E+00   0.0000000E+00   0.0000000E+00   0.0000000E+00   0.0000000E+00   0.0000000E+00   0.0000000E+00   0.0000000E+00   0.0000000E+00   0.0000000E+00   0.0000000E+00   0.0000000E+00   0.0000000E+00   0.0000000E+00   0.0000000E+00   0.0000000E+00   0.0000000E+00   0.0000000E+00   0.0000000E+00   0.0000000E+00   0.0000000E+00   0.0000000E+00   0.0000000E+00   0.0000000E+00   0.0000000E+00   0.0000000E+00   0.0000000E+00   0.0000000E+00   0.0000000E+00   0.0000000E+00   0.0000000E+00   0.0000000E+00   0.0000000E+00   0.0000000E+00
     3.3772706E-05  -1.4946727E-03  -4.8785724E-04  -6.9906079E-04  -9.9249498E-04   1.9895101E-03   0.0000000E+00  -9.4501463E-28   2.9795435E-04   0.0000000E+00   0.0000000E+00   0.0000000E+00   0.0000000E+00   0.0000000E+00   0.0000000E+00   0.0000000E+00   0.0000000E+00   0.0000000E+00   0.0000000E+00   0.0000000E+00   0.0000000E+00   0.0000000E+00   0.0000000E+00   0.0000000E+00   0.0000000E+00   0.0000000E+00   0.0000000E+00   0.0000000E+00   0.0000000E+00   0.0000000E+00   0.0000000E+00   0.0000000E+00   0.0000000E+00   0.0000000E+00   0.0000000E+00   0.0000000E+00   0.0000000E+00   0.0000000E+00   0.0000000E+00   0.0000000E+00   0.0000000E+00   0.0000000E+00   0.0000000E+00   0.0000000E+00   0.0000000E+00   0.0000000E+00   0.0000000E+00   0.0000000E+00   0.0000000E+00   0.0000000E+00   0.0000000E+00   0.0000000E+00   0.0000000E+00   0.0000000E+00   0.0000000E+00   0.0000000E+00   0.0000000E+00   0.0000000E+00   0.0000000E+00   0.0000000E+00   0.0000000E+00   0.0000000E+00   0.0000000E+00   0.0000000E+00   0.0000000E+00   0.0000000E+00   0.0000000E+00