
Linearized model: Predictions were generated on 14-Apr-2023 at 10:24:20 using OpenFAST, compiled as a 64-bit application using single precision at commit v3.2.1
 linked with  NWTC Subroutine Library; ElastoDyn; InflowWind; AeroDyn; ServoDyn; HydroDyn

Description from the FAST input file: FAST Certification Test #22: NREL 5.0 MW Baseline Wind Turbine with ITI Barge Configuration, for use in offshore analysis

Simulation information:
   Simulation time:                   185.5100 s
   Rotor Speed:                         1.2670 rad/s
   Azimuth:                             2.6183 rad
   Wind Speed:                         18.0000 m/s
   Number of continuous states:        14
   Number of discrete states:           0
   Number of constraint states:         0
   Number of inputs:                   67
   Number of outputs:                   5
   Jacobians included in this file?    No

Order of continuous states:
   Row/Column Operating Point                                    Rotating Frame? Derivative Order Description
   ---------- ---------------                                    --------------- ---------------- -----------
          1     1.2225468E-02                                           F               2         ED Platform pitch tilt rotation DOF (internal DOF index = DOF_P), rad
          2     1.4170395E-01                                           F               2         ED 1st tower fore-aft bending mode DOF (internal DOF index = DOF_TFA1), m
          3     1.0448596E+00                                           F               2         ED Variable speed generator DOF (internal DOF index = DOF_GeAz), rad
          4     2.6488225E-03                                           F               2         ED Drivetrain rotational-flexibility DOF (internal DOF index = DOF_DrTr), rad
          5     9.0189981E-01                                           T               2         ED 1st flapwise bending-mode DOF of blade 1 (internal DOF index = DOF_BF(1,1)), m
          6     4.1695008E-01                                           T               2         ED 1st flapwise bending-mode DOF of blade 2 (internal DOF index = DOF_BF(2,1)), m
          7     6.8867546E-01                                           T               2         ED 1st flapwise bending-mode DOF of blade 3 (internal DOF index = DOF_BF(3,1)), m
          8    -2.5221585E-05                                           F               2         ED First time derivative of Platform pitch tilt rotation DOF (internal DOF index = DOF_P), rad/s
          9     6.9190748E-03                                           F               2         ED First time derivative of 1st tower fore-aft bending mode DOF (internal DOF index = DOF_TFA1), m/s
         10     1.2685574E+00                                           F               2         ED First time derivative of Variable speed generator DOF (internal DOF index = DOF_GeAz), rad/s
         11    -1.5674293E-03                                           F               2         ED First time derivative of Drivetrain rotational-flexibility DOF (internal DOF index = DOF_DrTr), rad/s
         12    -1.5714356E-01                                           T               2         ED First time derivative of 1st flapwise bending-mode DOF of blade 1 (internal DOF index = DOF_BF(1,1)), m/s
         13    -2.7092347E-01                                           T               2         ED First time derivative of 1st flapwise bending-mode DOF of blade 2 (internal DOF index = DOF_BF(2,1)), m/s
         14     3.7433985E-01                                           T               2         ED First time derivative of 1st flapwise bending-mode DOF of blade 3 (internal DOF index = DOF_BF(3,1)), m/s

Order of continuous state derivatives:
   Row/Column Operating Point                                    Rotating Frame? Derivative Order Description
   ---------- ---------------                                    --------------- ---------------- -----------
          1    -2.5221585E-05                                           F               2         First time derivative of ED Platform pitch tilt rotation DOF (internal DOF index = DOF_P), rad/s
          2     6.9190748E-03                                           F               2         First time derivative of ED 1st tower fore-aft bending mode DOF (internal DOF index = DOF_TFA1), m/s
          3     1.2685574E+00                                           F               2         First time derivative of ED Variable speed generator DOF (internal DOF index = DOF_GeAz), rad/s
          4    -1.5674293E-03                                           F               2         First time derivative of ED Drivetrain rotational-flexibility DOF (internal DOF index = DOF_DrTr), rad/s
          5    -1.5714356E-01                                           T               2         First time derivative of ED 1st flapwise bending-mode DOF of blade 1 (internal DOF index = DOF_BF(1,1)), m/s
          6    -2.7092347E-01                                           T               2         First time derivative of ED 1st flapwise bending-mode DOF of blade 2 (internal DOF index = DOF_BF(2,1)), m/s
          7     3.7433985E-01                                           T               2         First time derivative of ED 1st flapwise bending-mode DOF of blade 3 (internal DOF index = DOF_BF(3,1)), m/s
          8     2.7365162E-04                                           F               2         First time derivative of ED First time derivative of Platform pitch tilt rotation DOF (internal DOF index = DOF_P), rad/s/s
          9    -3.6211479E-02                                           F               2         First time derivative of ED First time derivative of 1st tower fore-aft bending mode DOF (internal DOF index = DOF_TFA1), m/s/s
         10    -3.7640050E-01                                           F               2         First time derivative of ED First time derivative of Variable speed generator DOF (internal DOF index = DOF_GeAz), rad/s/s
         11     3.7288341E-01                                           F               2         First time derivative of ED First time derivative of Drivetrain rotational-flexibility DOF (internal DOF index = DOF_DrTr), rad/s/s
         12    -3.6720282E-01                                           T               2         First time derivative of ED First time derivative of 1st flapwise bending-mode DOF of blade 1 (internal DOF index = DOF_BF(1,1)), m/s/s
         13     3.5357702E-01                                           T               2         First time derivative of ED First time derivative of 1st flapwise bending-mode DOF of blade 2 (internal DOF index = DOF_BF(2,1)), m/s/s
         14     3.4618981E-02                                           T               2         First time derivative of ED First time derivative of 1st flapwise bending-mode DOF of blade 3 (internal DOF index = DOF_BF(3,1)), m/s/s

Order of inputs:
     Column   Operating Point                                    Rotating Frame? Derivative Order Description
   ---------- ---------------                                    --------------- ---------------- -----------
          1     1.8000000E+01                                           F               0         IfW Extended input: horizontal wind speed (steady/uniform wind), m/s
          2     0.0000000E+00                                           F               0         IfW Extended input: vertical power-law shear exponent, -
          3     0.0000000E+00                                           F               0         IfW Extended input: propagation direction, rad
          4     2.9654220E-01                                           T               0         ED Blade 1 pitch command, rad
          5     2.9654220E-01                                           T               0         ED Blade 2 pitch command, rad
          6     2.9654220E-01                                           T               0         ED Blade 3 pitch command, rad
          7     0.0000000E+00                                           F               0         ED Yaw moment, Nm
          8     4.3093551E+04                                           F               0         ED Generator torque, Nm
          9     2.9654220E-01                                           F               0         ED Extended input: collective blade-pitch command, rad
         10     0.0000000E+00                                           T               0         AD User property on blade 1, node 1, -
         11     0.0000000E+00                                           T               0         AD User property on blade 1, node 2, -
         12     0.0000000E+00                                           T               0         AD User property on blade 1, node 3, -
         13     0.0000000E+00                                           T               0         AD User property on blade 1, node 4, -
         14     0.0000000E+00                                           T               0         AD User property on blade 1, node 5, -
         15     0.0000000E+00                                           T               0         AD User property on blade 1, node 6, -
         16     0.0000000E+00                                           T               0         AD User property on blade 1, node 7, -
         17     0.0000000E+00                                           T               0         AD User property on blade 1, node 8, -
         18     0.0000000E+00                                           T               0         AD User property on blade 1, node 9, -
         19     0.0000000E+00                                           T               0         AD User property on blade 1, node 10, -
         20     0.0000000E+00                                           T               0         AD User property on blade 1, node 11, -
         21     0.0000000E+00                                           T               0         AD User property on blade 1, node 12, -
         22     0.0000000E+00                                           T               0         AD User property on blade 1, node 13, -
         23     0.0000000E+00                                           T               0         AD User property on blade 1, node 14, -
         24     0.0000000E+00                                           T               0         AD User property on blade 1, node 15, -
         25     0.0000000E+00                                           T               0         AD User property on blade 1, node 16, -
         26     0.0000000E+00                                           T               0         AD User property on blade 1, node 17, -
         27     0.0000000E+00                                           T               0         AD User property on blade 1, node 18, -
         28     0.0000000E+00                                           T               0         AD User property on blade 1, node 19, -
         29     0.0000000E+00                                           T               0         AD User property on blade 2, node 1, -
         30     0.0000000E+00                                           T               0         AD User property on blade 2, node 2, -
         31     0.0000000E+00                                           T               0         AD User property on blade 2, node 3, -
         32     0.0000000E+00                                           T               0         AD User property on blade 2, node 4, -
         33     0.0000000E+00                                           T               0         AD User property on blade 2, node 5, -
         34     0.0000000E+00                                           T               0         AD User property on blade 2, node 6, -
         35     0.0000000E+00                                           T               0         AD User property on blade 2, node 7, -
         36     0.0000000E+00                                           T               0         AD User property on blade 2, node 8, -
         37     0.0000000E+00                                           T               0         AD User property on blade 2, node 9, -
         38     0.0000000E+00                                           T               0         AD User property on blade 2, node 10, -
         39     0.0000000E+00                                           T               0         AD User property on blade 2, node 11, -
         40     0.0000000E+00                                           T               0         AD User property on blade 2, node 12, -
         41     0.0000000E+00                                           T               0         AD User property on blade 2, node 13, -
         42     0.0000000E+00                                           T               0         AD User property on blade 2, node 14, -
         43     0.0000000E+00                                           T               0         AD User property on blade 2, node 15, -
         44     0.0000000E+00                                           T               0         AD User property on blade 2, node 16, -
         45     0.0000000E+00                                           T               0         AD User property on blade 2, node 17, -
         46     0.0000000E+00                                           T               0         AD User property on blade 2, node 18, -
         47     0.0000000E+00                                           T               0         AD User property on blade 2, node 19, -
         48     0.0000000E+00                                           T               0         AD User property on blade 3, node 1, -
         49     0.0000000E+00                                           T               0         AD User property on blade 3, node 2, -
         50     0.0000000E+00                                           T               0         AD User property on blade 3, node 3, -
         51     0.0000000E+00                                           T               0         AD User property on blade 3, node 4, -
         52     0.0000000E+00                                           T               0         AD User property on blade 3, node 5, -
         53     0.0000000E+00                                           T               0         AD User property on blade 3, node 6, -
         54     0.0000000E+00                                           T               0         AD User property on blade 3, node 7, -
         55     0.0000000E+00                                           T               0         AD User property on blade 3, node 8, -
         56     0.0000000E+00                                           T               0         AD User property on blade 3, node 9, -
         57     0.0000000E+00                                           T               0         AD User property on blade 3, node 10, -
         58     0.0000000E+00                                           T               0         AD User property on blade 3, node 11, -
         59     0.0000000E+00                                           T               0         AD User property on blade 3, node 12, -
         60     0.0000000E+00                                           T               0         AD User property on blade 3, node 13, -
         61     0.0000000E+00                                           T               0         AD User property on blade 3, node 14, -
         62     0.0000000E+00                                           T               0         AD User property on blade 3, node 15, -
         63     0.0000000E+00                                           T               0         AD User property on blade 3, node 16, -
         64     0.0000000E+00                                           T               0         AD User property on blade 3, node 17, -
         65     0.0000000E+00                                           T               0         AD User property on blade 3, node 18, -
         66     0.0000000E+00                                           T               0         AD User property on blade 3, node 19, -
         67     0.0000000E+00                                           F               0         HD Extended input: wave elevation at platform ref point, m

Order of outputs:
        Row   Operating Point                                    Rotating Frame? Derivative Order Description
   ---------- ---------------                                    --------------- ---------------- -----------
          1     1.1750415E+03                                           F               0         ED GenSpeed, (rpm)
          2     3.1120740E+03                                           T               0         ED RootMyb1, (kN-m)
          3     2.1604333E+03                                           T               0         ED RootMyb2, (kN-m)
          4     2.6500256E+03                                           T               0         ED RootMyb3, (kN-m)
          5    -1.3176368E-02                                           F               0         ED NcIMUTAxs, (m/s^2)


Linearized state matrices:

A: 14 x 14
     0.0000000E+00   0.0000000E+00   0.0000000E+00   0.0000000E+00   0.0000000E+00   0.0000000E+00   0.0000000E+00   1.0000000E+00   0.0000000E+00   0.0000000E+00   0.0000000E+00   0.0000000E+00   0.0000000E+00   0.0000000E+00
     0.0000000E+00   0.0000000E+00   0.0000000E+00   0.0000000E+00   0.0000000E+00   0.0000000E+00   0.0000000E+00   0.0000000E+00   1.0000000E+00   0.0000000E+00   0.0000000E+00   0.0000000E+00   0.0000000E+00   0.0000000E+00
     0.0000000E+00   0.0000000E+00   0.0000000E+00   0.0000000E+00   0.0000000E+00   0.0000000E+00   0.0000000E+00   0.0000000E+00   0.0000000E+00   1.0000000E+00   0.0000000E+00   0.0000000E+00   0.0000000E+00   0.0000000E+00
     0.0000000E+00   0.0000000E+00   0.0000000E+00   0.0000000E+00   0.0000000E+00   0.0000000E+00   0.0000000E+00   0.0000000E+00   0.0000000E+00   0.0000000E+00   1.0000000E+00   0.0000000E+00   0.0000000E+00   0.0000000E+00
     0.0000000E+00   0.0000000E+00   0.0000000E+00   0.0000000E+00   0.0000000E+00   0.0000000E+00   0.0000000E+00   0.0000000E+00   0.0000000E+00   0.0000000E+00   0.0000000E+00   1.0000000E+00   0.0000000E+00   0.0000000E+00
     0.0000000E+00   0.0000000E+00   0.0000000E+00   0.0000000E+00   0.0000000E+00   0.0000000E+00   0.0000000E+00   0.0000000E+00   0.0000000E+00   0.0000000E+00   0.0000000E+00   0.0000000E+00   1.0000000E+00   0.0000000E+00
     0.0000000E+00   0.0000000E+00   0.0000000E+00   0.0000000E+00   0.0000000E+00   0.0000000E+00   0.0000000E+00   0.0000000E+00   0.0000000E+00   0.0000000E+00   0.0000000E+00   0.0000000E+00   0.0000000E+00   1.0000000E+00
    -9.5846214E-01   7.7687500E-02   2.2723984E-04   9.3909237E-03   5.7998169E-04  -1.3892290E-04  -6.3750513E-04   9.6067244E-04   3.0344982E-04   8.7849484E-05   1.5348160E-04   1.5966333E-05  -7.2132611E-06  -1.8590695E-05
     9.5088509E+01  -1.1109450E+01  -7.4307665E-02  -1.7932162E+01  -1.2653276E-02   1.4045835E-01   2.3584536E-01  -5.3468265E+00  -1.0194605E-01  -2.2125698E-01  -3.4917399E-01   1.1494042E-03   6.5583408E-03   9.8200059E-03
    -5.3640761E-07  -6.1237471E-07  -4.0917877E-15   1.7264699E+02   1.3987156E-16   3.6284612E-18   8.3502182E-16   8.9371511E-14  -1.9858971E-10  -2.1741587E-11   1.2366935E+00  -4.7189093E-17  -4.1672087E-16   6.4931502E-16
     1.1297585E-02  -3.8705764E-02  -5.9209894E-03  -1.9911044E+02   2.6656621E-02   2.7142873E-02   2.7789845E-02   5.1291715E-02   6.2156731E-04   5.5913473E-02  -1.3702992E+00   2.5937266E-03   2.1712069E-03   2.9080842E-03
     2.9291122E+01  -3.0262924E+00  -1.8872792E+00   1.1981687E+03  -2.1974973E+01  -1.2563898E+00  -1.2673606E+00  -2.8917241E+02   1.6236146E+00  -1.1684758E+02  -1.0825159E+02  -5.1666572E+00  -1.0119304E-01  -1.3088409E-01
     3.6375732E+01   1.4484815E+01   1.6267938E-01   1.2369195E+03  -1.2887042E+00  -2.1988206E+01  -1.6952695E+00  -1.0439066E+03  -1.4588504E+01  -1.0517516E+02  -9.6316051E+01  -1.2059424E-01  -4.9322316E+00  -1.5407495E-01
    -1.2781344E+02   2.3047713E+01   4.7953090E+00   1.2648809E+03  -1.3070823E+00  -1.7175631E+00  -2.2642949E+01  -1.0543442E+03  -1.4779020E+01  -1.2044792E+02  -1.1142157E+02  -1.2636416E-01  -1.2079373E-01  -5.4053431E+00
B: 14 x 67
     0.0000000E+00   0.0000000E+00   0.0000000E+00   0.0000000E+00   0.0000000E+00   0.0000000E+00   0.0000000E+00   0.0000000E+00   0.0000000E+00   0.0000000E+00   0.0000000E+00   0.0000000E+00   0.0000000E+00   0.0000000E+00   0.0000000E+00   0.0000000E+00   0.0000000E+00   0.0000000E+00   0.0000000E+00   0.0000000E+00   0.0000000E+00   0.0000000E+00   0.0000000E+00   0.0000000E+00   0.0000000E+00   0.0000000E+00   0.0000000E+00   0.0000000E+00   0.0000000E+00   0.0000000E+00   0.0000000E+00   0.0000000E+00   0.0000000E+00   0.0000000E+00   0.0000000E+00   0.0000000E+00   0.0000000E+00   0.0000000E+00   0.0000000E+00   0.0000000E+00   0.0000000E+00   0.0000000E+00   0.0000000E+00   0.0000000E+00   0.0000000E+00   0.0000000E+00   0.0000000E+00   0.0000000E+00   0.0000000E+00   0.0000000E+00   0.0000000E+00   0.0000000E+00   0.0000000E+00   0.0000000E+00   0.0000000E+00   0.0000000E+00   0.0000000E+00   0.0000000E+00   0.0000000E+00   0.0000000E+00   0.0000000E+00   0.0000000E+00   0.0000000E+00   0.0000000E+00   0.0000000E+00   0.0000000E+00   0.0000000E+00
     0.0000000E+00   0.0000000E+00   0.0000000E+00   0.0000000E+00   0.0000000E+00   0.0000000E+00   0.0000000E+00   0.0000000E+00   0.0000000E+00   0.0000000E+00   0.0000000E+00   0.0000000E+00   0.0000000E+00   0.0000000E+00   0.0000000E+00   0.0000000E+00   0.0000000E+00   0.0000000E+00   0.0000000E+00   0.0000000E+00   0.0000000E+00   0.0000000E+00   0.0000000E+00   0.0000000E+00   0.0000000E+00   0.0000000E+00   0.0000000E+00   0.0000000E+00   0.0000000E+00   0.0000000E+00   0.0000000E+00   0.0000000E+00   0.0000000E+00   0.0000000E+00   0.0000000E+00   0.0000000E+00   0.0000000E+00   0.0000000E+00   0.0000000E+00   0.0000000E+00   0.0000000E+00   0.0000000E+00   0.0000000E+00   0.0000000E+00   0.0000000E+00   0.0000000E+00   0.0000000E+00   0.0000000E+00   0.0000000E+00   0.0000000E+00   0.0000000E+00   0.0000000E+00   0.0000000E+00   0.0000000E+00   0.0000000E+00   0.0000000E+00   0.0000000E+00   0.0000000E+00   0.0000000E+00   0.0000000E+00   0.0000000E+00   0.0000000E+00   0.0000000E+00   0.0000000E+00   0.0000000E+00   0.0000000E+00   0.0000000E+00
     0.0000000E+00   0.0000000E+00   0.0000000E+00   0.0000000E+00   0.0000000E+00   0.0000000E+00   0.0000000E+00   0.0000000E+00   0.0000000E+00   0.0000000E+00   0.0000000E+00   0.0000000E+00   0.0000000E+00   0.0000000E+00   0.0000000E+00   0.0000000E+00   0.0000000E+00   0.0000000E+00   0.0000000E+00   0.0000000E+00   0.0000000E+00   0.0000000E+00   0.0000000E+00   0.0000000E+00   0.0000000E+00   0.0000000E+00   0.0000000E+00   0.0000000E+00   0.0000000E+00   0.0000000E+00   0.0000000E+00   0.0000000E+00   0.0000000E+00   0.0000000E+00   0.0000000E+00   0.0000000E+00   0.0000000E+00   0.0000000E+00   0.0000000E+00   0.0000000E+00   0.0000000E+00   0.0000000E+00   0.0000000E+00   0.0000000E+00   0.0000000E+00   0.0000000E+00   0.0000000E+00   0.0000000E+00   0.0000000E+00   0.0000000E+00   0.0000000E+00   0.0000000E+00   0.0000000E+00   0.0000000E+00   0.0000000E+00   0.0000000E+00   0.0000000E+00   0.0000000E+00   0.0000000E+00   0.0000000E+00   0.0000000E+00   0.0000000E+00   0.0000000E+00   0.0000000E+00   0.0000000E+00   0.0000000E+00   0.0000000E+00
     0.0000000E+00   0.0000000E+00   0.0000000E+00   0.0000000E+00   0.0000000E+00   0.0000000E+00   0.0000000E+00   0.0000000E+00   0.0000000E+00   0.0000000E+00   0.0000000E+00   0.0000000E+00   0.0000000E+00   0.0000000E+00   0.0000000E+00   0.0000000E+00   0.0000000E+00   0.0000000E+00   0.0000000E+00   0.0000000E+00   0.0000000E+00   0.0000000E+00   0.0000000E+00   0.0000000E+00   0.0000000E+00   0.0000000E+00   0.0000000E+00   0.0000000E+00   0.0000000E+00   0.0000000E+00   0.0000000E+00   0.0000000E+00   0.0000000E+00   0.0000000E+00   0.0000000E+00   0.0000000E+00   0.0000000E+00   0.0000000E+00   0.0000000E+00   0.0000000E+00   0.0000000E+00   0.0000000E+00   0.0000000E+00   0.0000000E+00   0.0000000E+00   0.0000000E+00   0.0000000E+00   0.0000000E+00   0.0000000E+00   0.0000000E+00   0.0000000E+00   0.0000000E+00   0.0000000E+00   0.0000000E+00   0.0000000E+00   0.0000000E+00   0.0000000E+00   0.0000000E+00   0.0000000E+00   0.0000000E+00   0.0000000E+00   0.0000000E+00   0.0000000E+00   0.0000000E+00   0.0000000E+00   0.0000000E+00   0.0000000E+00
     0.0000000E+00   0.0000000E+00   0.0000000E+00   0.0000000E+00   0.0000000E+00   0.0000000E+00   0.0000000E+00   0.0000000E+00   0.0000000E+00   0.0000000E+00   0.0000000E+00   0.0000000E+00   0.0000000E+00   0.0000000E+00   0.0000000E+00   0.0000000E+00   0.0000000E+00   0.0000000E+00   0.0000000E+00   0.0000000E+00   0.0000000E+00   0.0000000E+00   0.0000000E+00   0.0000000E+00   0.0000000E+00   0.0000000E+00   0.0000000E+00   0.0000000E+00   0.0000000E+00   0.0000000E+00   0.0000000E+00   0.0000000E+00   0.0000000E+00   0.0000000E+00   0.0000000E+00   0.0000000E+00   0.0000000E+00   0.0000000E+00   0.0000000E+00   0.0000000E+00   0.0000000E+00   0.0000000E+00   0.0000000E+00   0.0000000E+00   0.0000000E+00   0.0000000E+00   0.0000000E+00   0.0000000E+00   0.0000000E+00   0.0000000E+00   0.0000000E+00   0.0000000E+00   0.0000000E+00   0.0000000E+00   0.0000000E+00   0.0000000E+00   0.0000000E+00   0.0000000E+00   0.0000000E+00   0.0000000E+00   0.0000000E+00   0.0000000E+00   0.0000000E+00   0.0000000E+00   0.0000000E+00   0.0000000E+00   0.0000000E+00
     0.0000000E+00   0.0000000E+00   0.0000000E+00   0.0000000E+00   0.0000000E+00   0.0000000E+00   0.0000000E+00   0.0000000E+00   0.0000000E+00   0.0000000E+00   0.0000000E+00   0.0000000E+00   0.0000000E+00   0.0000000E+00   0.0000000E+00   0.0000000E+00   0.0000000E+00   0.0000000E+00   0.0000000E+00   0.0000000E+00   0.0000000E+00   0.0000000E+00   0.0000000E+00   0.0000000E+00   0.0000000E+00   0.0000000E+00   0.0000000E+00   0.0000000E+00   0.0000000E+00   0.0000000E+00   0.0000000E+00   0.0000000E+00   0.0000000E+00   0.0000000E+00   0.0000000E+00   0.0000000E+00   0.0000000E+00   0.0000000E+00   0.0000000E+00   0.0000000E+00   0.0000000E+00   0.0000000E+00   0.0000000E+00   0.0000000E+00   0.0000000E+00   0.0000000E+00   0.0000000E+00   0.0000000E+00   0.0000000E+00   0.0000000E+00   0.0000000E+00   0.0000000E+00   0.0000000E+00   0.0000000E+00   0.0000000E+00   0.0000000E+00   0.0000000E+00   0.0000000E+00   0.0000000E+00   0.0000000E+00   0.0000000E+00   0.0000000E+00   0.0000000E+00   0.0000000E+00   0.0000000E+00   0.0000000E+00   0.0000000E+00
     0.0000000E+00   0.0000000E+00   0.0000000E+00   0.0000000E+00   0.0000000E+00   0.0000000E+00   0.0000000E+00   0.0000000E+00   0.0000000E+00   0.0000000E+00   0.0000000E+00   0.0000000E+00   0.0000000E+00   0.0000000E+00   0.0000000E+00   0.0000000E+00   0.0000000E+00   0.0000000E+00   0.0000000E+00   0.0000000E+00   0.0000000E+00   0.0000000E+00   0.0000000E+00   0.0000000E+00   0.0000000E+00   0.0000000E+00   0.0000000E+00   0.0000000E+00   0.0000000E+00   0.0000000E+00   0.0000000E+00   0.0000000E+00   0.0000000E+00   0.0000000E+00   0.0000000E+00   0.0000000E+00   0.0000000E+00   0.0000000E+00   0.0000000E+00   0.0000000E+00   0.0000000E+00   0.0000000E+00   0.0000000E+00   0.0000000E+00   0.0000000E+00   0.0000000E+00   0.0000000E+00   0.0000000E+00   0.0000000E+00   0.0000000E+00   0.0000000E+00   0.0000000E+00   0.0000000E+00   0.0000000E+00   0.0000000E+00   0.0000000E+00   0.0000000E+00   0.0000000E+00   0.0000000E+00   0.0000000E+00   0.0000000E+00   0.0000000E+00   0.0000000E+00   0.0000000E+00   0.0000000E+00   0.0000000E+00   0.0000000E+00
     3.8502463E-05  -1.4651597E-03  -5.1719513E-04  -2.0945325E-03  -2.9180606E-04   2.6613367E-03   0.0000000E+00  -7.7063381E-28   2.7499812E-04   0.0000000E+00   0.0000000E+00   0.0000000E+00   0.0000000E+00   0.0000000E+00   0.0000000E+00   0.0000000E+00   0.0000000E+00   0.0000000E+00   0.0000000E+00   0.0000000E+00   0.0000000E+00   0.0000000E+00   0.0000000E+00   0.0000000E+00   0.0000000E+00   0.0000000E+00   0.0000000E+00   0.0000000E+00   0.0000000E+00   0.0000000E+00   0.0000000E+00   0.0000000E+00   0.0000000E+00   0.0000000E+00   0.0000000E+00   0.0000000E+00   0.0000000E+00   0.0000000E+00   0.0000000E+00   0.0000000E+00   0.0000000E+00   0.0000000E+00   0.0000000E+00   0.0000000E+00   0.0000000E+00   0.0000000E+00   0.0000000E+00   0.0000000E+00   0.0000000E+00   0.0000000E+00   0.0000000E+00   0.0000000E+00   0.0000000E+00   0.0000000E+00   0.0000000E+00   0.0000000E+00   0.0000000E+00   0.0000000E+00   0.0000000E+00   0.0000000E+00   0.0000000E+00   0.0000000E+00   0.0000000E+00   0.0000000E+00   0.0000000E+00   0.0000000E+00   0.0000000E+00