
Linearized model: Predictions were generated on 14-Apr-2023 at 10:24:20 using OpenFAST, compiled as a 64-bit application using single precision at commit v3.2.1
 linked with  NWTC Subroutine Library; ElastoDyn; InflowWind; AeroDyn; ServoDyn; HydroDyn

Description from the FAST input file: FAST Certification Test #22: NREL 5.0 MW Baseline Wind Turbine with ITI Barge Configuration, for use in offshore analysis

Simulation information:
   Simulation time:                   184.1330 s
   Rotor Speed:                         1.2664 rad/s
   Azimuth:                             0.8734 rad
   Wind Speed:                         18.0000 m/s
   Number of continuous states:        14
   Number of discrete states:           0
   Number of constraint states:         0
   Number of inputs:                   67
   Number of outputs:                   5
   Jacobians included in this file?    No

Order of continuous states:
   Row/Column Operating Point                                    Rotating Frame? Derivative Order Description
   ---------- ---------------                                    --------------- ---------------- -----------
          1     1.2231412E-02                                           F               2         ED Platform pitch tilt rotation DOF (internal DOF index = DOF_P), rad
          2     1.4200044E-01                                           F               2         ED 1st tower fore-aft bending mode DOF (internal DOF index = DOF_TFA1), m
          3     5.5833664E+00                                           F               2         ED Variable speed generator DOF (internal DOF index = DOF_GeAz), rad
          4     2.3778875E-03                                           F               2         ED Drivetrain rotational-flexibility DOF (internal DOF index = DOF_DrTr), rad
          5     7.8997439E-01                                           T               2         ED 1st flapwise bending-mode DOF of blade 1 (internal DOF index = DOF_BF(1,1)), m
          6     8.3016497E-01                                           T               2         ED 1st flapwise bending-mode DOF of blade 2 (internal DOF index = DOF_BF(2,1)), m
          7     3.6611131E-01                                           T               2         ED 1st flapwise bending-mode DOF of blade 3 (internal DOF index = DOF_BF(3,1)), m
          8     5.4989097E-05                                           F               2         ED First time derivative of Platform pitch tilt rotation DOF (internal DOF index = DOF_P), rad/s
          9    -5.3454856E-03                                           F               2         ED First time derivative of 1st tower fore-aft bending mode DOF (internal DOF index = DOF_TFA1), m/s
         10     1.2669754E+00                                           F               2         ED First time derivative of Variable speed generator DOF (internal DOF index = DOF_GeAz), rad/s
         11    -6.0400413E-04                                           F               2         ED First time derivative of Drivetrain rotational-flexibility DOF (internal DOF index = DOF_DrTr), rad/s
         12     3.4458798E-01                                           T               2         ED First time derivative of 1st flapwise bending-mode DOF of blade 1 (internal DOF index = DOF_BF(1,1)), m/s
         13    -4.9846199E-01                                           T               2         ED First time derivative of 1st flapwise bending-mode DOF of blade 2 (internal DOF index = DOF_BF(2,1)), m/s
         14    -7.6192379E-02                                           T               2         ED First time derivative of 1st flapwise bending-mode DOF of blade 3 (internal DOF index = DOF_BF(3,1)), m/s

Order of continuous state derivatives:
   Row/Column Operating Point                                    Rotating Frame? Derivative Order Description
   ---------- ---------------                                    --------------- ---------------- -----------
          1     5.4989097E-05                                           F               2         First time derivative of ED Platform pitch tilt rotation DOF (internal DOF index = DOF_P), rad/s
          2    -5.3454856E-03                                           F               2         First time derivative of ED 1st tower fore-aft bending mode DOF (internal DOF index = DOF_TFA1), m/s
          3     1.2669754E+00                                           F               2         First time derivative of ED Variable speed generator DOF (internal DOF index = DOF_GeAz), rad/s
          4    -6.0400413E-04                                           F               2         First time derivative of ED Drivetrain rotational-flexibility DOF (internal DOF index = DOF_DrTr), rad/s
          5     3.4458798E-01                                           T               2         First time derivative of ED 1st flapwise bending-mode DOF of blade 1 (internal DOF index = DOF_BF(1,1)), m/s
          6    -4.9846199E-01                                           T               2         First time derivative of ED 1st flapwise bending-mode DOF of blade 2 (internal DOF index = DOF_BF(2,1)), m/s
          7    -7.6192379E-02                                           T               2         First time derivative of ED 1st flapwise bending-mode DOF of blade 3 (internal DOF index = DOF_BF(3,1)), m/s
          8     2.1207907E-04                                           F               2         First time derivative of ED First time derivative of Platform pitch tilt rotation DOF (internal DOF index = DOF_P), rad/s/s
          9    -4.3502741E-02                                           F               2         First time derivative of ED First time derivative of 1st tower fore-aft bending mode DOF (internal DOF index = DOF_TFA1), m/s/s
         10     4.0976158E-01                                           F               2         First time derivative of ED First time derivative of Variable speed generator DOF (internal DOF index = DOF_GeAz), rad/s/s
         11    -4.0960118E-01                                           F               2         First time derivative of ED First time derivative of Drivetrain rotational-flexibility DOF (internal DOF index = DOF_DrTr), rad/s/s
         12    -2.8788474E-01                                           T               2         First time derivative of ED First time derivative of 1st flapwise bending-mode DOF of blade 1 (internal DOF index = DOF_BF(1,1)), m/s/s
         13    -3.7131884E+00                                           T               2         First time derivative of ED First time derivative of 1st flapwise bending-mode DOF of blade 2 (internal DOF index = DOF_BF(2,1)), m/s/s
         14     8.3983380E-01                                           T               2         First time derivative of ED First time derivative of 1st flapwise bending-mode DOF of blade 3 (internal DOF index = DOF_BF(3,1)), m/s/s

Order of inputs:
     Column   Operating Point                                    Rotating Frame? Derivative Order Description
   ---------- ---------------                                    --------------- ---------------- -----------
          1     1.8000000E+01                                           F               0         IfW Extended input: horizontal wind speed (steady/uniform wind), m/s
          2     0.0000000E+00                                           F               0         IfW Extended input: vertical power-law shear exponent, -
          3     0.0000000E+00                                           F               0         IfW Extended input: propagation direction, rad
          4     2.9640245E-01                                           T               0         ED Blade 1 pitch command, rad
          5     2.9640245E-01                                           T               0         ED Blade 2 pitch command, rad
          6     2.9640245E-01                                           T               0         ED Blade 3 pitch command, rad
          7     0.0000000E+00                                           F               0         ED Yaw moment, Nm
          8     1.3759040E+00                                           F               0         ED Generator torque, Nm
          9     2.9640245E-01                                           F               0         ED Extended input: collective blade-pitch command, rad
         10     0.0000000E+00                                           T               0         AD User property on blade 1, node 1, -
         11     0.0000000E+00                                           T               0         AD User property on blade 1, node 2, -
         12     0.0000000E+00                                           T               0         AD User property on blade 1, node 3, -
         13     0.0000000E+00                                           T               0         AD User property on blade 1, node 4, -
         14     0.0000000E+00                                           T               0         AD User property on blade 1, node 5, -
         15     0.0000000E+00                                           T               0         AD User property on blade 1, node 6, -
         16     0.0000000E+00                                           T               0         AD User property on blade 1, node 7, -
         17     0.0000000E+00                                           T               0         AD User property on blade 1, node 8, -
         18     0.0000000E+00                                           T               0         AD User property on blade 1, node 9, -
         19     0.0000000E+00                                           T               0         AD User property on blade 1, node 10, -
         20     0.0000000E+00                                           T               0         AD User property on blade 1, node 11, -
         21     0.0000000E+00                                           T               0         AD User property on blade 1, node 12, -
         22     0.0000000E+00                                           T               0         AD User property on blade 1, node 13, -
         23     0.0000000E+00                                           T               0         AD User property on blade 1, node 14, -
         24     0.0000000E+00                                           T               0         AD User property on blade 1, node 15, -
         25     0.0000000E+00                                           T               0         AD User property on blade 1, node 16, -
         26     0.0000000E+00                                           T               0         AD User property on blade 1, node 17, -
         27     0.0000000E+00                                           T               0         AD User property on blade 1, node 18, -
         28     0.0000000E+00                                           T               0         AD User property on blade 1, node 19, -
         29     0.0000000E+00                                           T               0         AD User property on blade 2, node 1, -
         30     0.0000000E+00                                           T               0         AD User property on blade 2, node 2, -
         31     0.0000000E+00                                           T               0         AD User property on blade 2, node 3, -
         32     0.0000000E+00                                           T               0         AD User property on blade 2, node 4, -
         33     0.0000000E+00                                           T               0         AD User property on blade 2, node 5, -
         34     0.0000000E+00                                           T               0         AD User property on blade 2, node 6, -
         35     0.0000000E+00                                           T               0         AD User property on blade 2, node 7, -
         36     0.0000000E+00                                           T               0         AD User property on blade 2, node 8, -
         37     0.0000000E+00                                           T               0         AD User property on blade 2, node 9, -
         38     0.0000000E+00                                           T               0         AD User property on blade 2, node 10, -
         39     0.0000000E+00                                           T               0         AD User property on blade 2, node 11, -
         40     0.0000000E+00                                           T               0         AD User property on blade 2, node 12, -
         41     0.0000000E+00                                           T               0         AD User property on blade 2, node 13, -
         42     0.0000000E+00                                           T               0         AD User property on blade 2, node 14, -
         43     0.0000000E+00                                           T               0         AD User property on blade 2, node 15, -
         44     0.0000000E+00                                           T               0         AD User property on blade 2, node 16, -
         45     0.0000000E+00                                           T               0         AD User property on blade 2, node 17, -
         46     0.0000000E+00                                           T               0         AD User property on blade 2, node 18, -
         47     0.0000000E+00                                           T               0         AD User property on blade 2, node 19, -
         48     0.0000000E+00                                           T               0         AD User property on blade 3, node 1, -
         49     0.0000000E+00                                           T               0         AD User property on blade 3, node 2, -
         50     0.0000000E+00                                           T               0         AD User property on blade 3, node 3, -
         51     0.0000000E+00                                           T               0         AD User property on blade 3, node 4, -
         52     0.0000000E+00                                           T               0         AD User property on blade 3, node 5, -
         53     0.0000000E+00                                           T               0         AD User property on blade 3, node 6, -
         54     0.0000000E+00                                           T               0         AD User property on blade 3, node 7, -
         55     0.0000000E+00                                           T               0         AD User property on blade 3, node 8, -
         56     0.0000000E+00                                           T               0         AD User property on blade 3, node 9, -
         57     0.0000000E+00                                           T               0         AD User property on blade 3, node 10, -
         58     0.0000000E+00                                           T               0         AD User property on blade 3, node 11, -
         59     0.0000000E+00                                           T               0         AD User property on blade 3, node 12, -
         60     0.0000000E+00                                           T               0         AD User property on blade 3, node 13, -
         61     0.0000000E+00                                           T               0         AD User property on blade 3, node 14, -
         62     0.0000000E+00                                           T               0         AD User property on blade 3, node 15, -
         63     0.0000000E+00                                           T               0         AD User property on blade 3, node 16, -
         64     0.0000000E+00                                           T               0         AD User property on blade 3, node 17, -
         65     0.0000000E+00                                           T               0         AD User property on blade 3, node 18, -
         66     0.0000000E+00                                           T               0         AD User property on blade 3, node 19, -
         67     0.0000000E+00                                           F               0         HD Extended input: wave elevation at platform ref point, m

Order of outputs:
        Row   Operating Point                                    Rotating Frame? Derivative Order Description
   ---------- ---------------                                    --------------- ---------------- -----------
          1     1.1735762E+03                                           F               0         ED GenSpeed, (rpm)
          2     2.8493496E+03                                           T               0         ED RootMyb1, (kN-m)
          3     2.7811558E+03                                           T               0         ED RootMyb2, (kN-m)
          4     2.0692971E+03                                           T               0         ED RootMyb3, (kN-m)
          5    -2.6238021E-02                                           F               0         ED NcIMUTAxs, (m/s^2)


Linearized state matrices:

A: 14 x 14
     0.0000000E+00   0.0000000E+00   0.0000000E+00   0.0000000E+00   0.0000000E+00   0.0000000E+00   0.0000000E+00   1.0000000E+00   0.0000000E+00   0.0000000E+00   0.0000000E+00   0.0000000E+00   0.0000000E+00   0.0000000E+00
     0.0000000E+00   0.0000000E+00   0.0000000E+00   0.0000000E+00   0.0000000E+00   0.0000000E+00   0.0000000E+00   0.0000000E+00   1.0000000E+00   0.0000000E+00   0.0000000E+00   0.0000000E+00   0.0000000E+00   0.0000000E+00
     0.0000000E+00   0.0000000E+00   0.0000000E+00   0.0000000E+00   0.0000000E+00   0.0000000E+00   0.0000000E+00   0.0000000E+00   0.0000000E+00   1.0000000E+00   0.0000000E+00   0.0000000E+00   0.0000000E+00   0.0000000E+00
     0.0000000E+00   0.0000000E+00   0.0000000E+00   0.0000000E+00   0.0000000E+00   0.0000000E+00   0.0000000E+00   0.0000000E+00   0.0000000E+00   0.0000000E+00   1.0000000E+00   0.0000000E+00   0.0000000E+00   0.0000000E+00
     0.0000000E+00   0.0000000E+00   0.0000000E+00   0.0000000E+00   0.0000000E+00   0.0000000E+00   0.0000000E+00   0.0000000E+00   0.0000000E+00   0.0000000E+00   0.0000000E+00   1.0000000E+00   0.0000000E+00   0.0000000E+00
     0.0000000E+00   0.0000000E+00   0.0000000E+00   0.0000000E+00   0.0000000E+00   0.0000000E+00   0.0000000E+00   0.0000000E+00   0.0000000E+00   0.0000000E+00   0.0000000E+00   0.0000000E+00   1.0000000E+00   0.0000000E+00
     0.0000000E+00   0.0000000E+00   0.0000000E+00   0.0000000E+00   0.0000000E+00   0.0000000E+00   0.0000000E+00   0.0000000E+00   0.0000000E+00   0.0000000E+00   0.0000000E+00   0.0000000E+00   0.0000000E+00   1.0000000E+00
    -9.5830244E-01   7.7693652E-02  -8.7055523E-05   9.0503030E-03  -4.6671739E-04   6.4306325E-04  -3.7145349E-04   1.2837358E-03   3.0699079E-04   4.9136209E-05   1.1458690E-04  -1.2435255E-05   1.6140124E-05  -1.3191457E-05
     9.5017804E+01  -1.1111264E+01  -7.0951404E-02  -1.7918432E+01   1.9973507E-01  -2.4379801E-02   1.8691000E-01  -5.3304722E+00  -1.0205129E-01  -2.3087555E-01  -3.5871961E-01   8.4511650E-03   1.1038973E-03   7.8724457E-03
     5.8394570E-07   6.6662354E-07   2.9277780E-15   1.7264699E+02  -4.0651943E-16   5.3548345E-16  -1.3033442E-16   1.3191367E-13   3.5150388E-15  -4.1922066E-05   1.2366935E+00   2.2947496E-16  -2.8513405E-17  -1.4399533E-17
     5.2922406E-04  -3.8879471E-02   7.5279537E-04  -1.9910114E+02   2.7682058E-02   2.6553158E-02   2.7110924E-02   8.2497734E-02   8.1044082E-04   5.8896709E-02  -1.3673382E+00   3.0093117E-03   2.5734593E-03   2.1739887E-03
    -1.1345616E+02   1.9086014E+01   3.8954807E+00   1.2545426E+03  -2.2546641E+01  -1.2704716E+00  -1.7446928E+00  -9.0098456E+02  -1.1388491E+01  -1.2172715E+02  -1.1276848E+02  -5.4952677E+00  -1.2373653E-01  -1.2057245E-01
     6.4758477E+01  -3.7048463E+00  -4.6573432E+01   1.1503755E+03  -1.2396795E+00  -2.2174923E+01  -1.2210736E+00  -3.0732978E+02   9.6610081E-01  -1.1560946E+02  -1.0703579E+02  -1.3469910E-01  -5.0733911E+00  -9.8644916E-02
     3.3996240E+00   1.9494070E+01   1.6078435E+00   1.2494951E+03  -1.7553982E+00  -1.2719117E+00  -2.1895255E+01  -1.1651893E+03  -1.7247522E+01  -1.0492396E+02  -9.5985170E+01  -1.6184051E-01  -1.2078119E-01  -4.8984953E+00
B: 14 x 67
     0.0000000E+00   0.0000000E+00   0.0000000E+00   0.0000000E+00   0.0000000E+00   0.0000000E+00   0.0000000E+00   0.0000000E+00   0.0000000E+00   0.0000000E+00   0.0000000E+00   0.0000000E+00   0.0000000E+00   0.0000000E+00   0.0000000E+00   0.0000000E+00   0.0000000E+00   0.0000000E+00   0.0000000E+00   0.0000000E+00   0.0000000E+00   0.0000000E+00   0.0000000E+00   0.0000000E+00   0.0000000E+00   0.0000000E+00   0.0000000E+00   0.0000000E+00   0.0000000E+00   0.0000000E+00   0.0000000E+00   0.0000000E+00   0.0000000E+00   0.0000000E+00   0.0000000E+00   0.0000000E+00   0.0000000E+00   0.0000000E+00   0.0000000E+00   0.0000000E+00   0.0000000E+00   0.0000000E+00   0.0000000E+00   0.0000000E+00   0.0000000E+00   0.0000000E+00   0.0000000E+00   0.0000000E+00   0.0000000E+00   0.0000000E+00   0.0000000E+00   0.0000000E+00   0.0000000E+00   0.0000000E+00   0.0000000E+00   0.0000000E+00   0.0000000E+00   0.0000000E+00   0.0000000E+00   0.0000000E+00   0.0000000E+00   0.0000000E+00   0.0000000E+00   0.0000000E+00   0.0000000E+00   0.0000000E+00   0.0000000E+00
     0.0000000E+00   0.0000000E+00   0.0000000E+00   0.0000000E+00   0.0000000E+00   0.0000000E+00   0.0000000E+00   0.0000000E+00   0.0000000E+00   0.0000000E+00   0.0000000E+00   0.0000000E+00   0.0000000E+00   0.0000000E+00   0.0000000E+00   0.0000000E+00   0.0000000E+00   0.0000000E+00   0.0000000E+00   0.0000000E+00   0.0000000E+00   0.0000000E+00   0.0000000E+00   0.0000000E+00   0.0000000E+00   0.0000000E+00   0.0000000E+00   0.0000000E+00   0.0000000E+00   0.0000000E+00   0.0000000E+00   0.0000000E+00   0.0000000E+00   0.0000000E+00   0.0000000E+00   0.0000000E+00   0.0000000E+00   0.0000000E+00   0.0000000E+00   0.0000000E+00   0.0000000E+00   0.0000000E+00   0.0000000E+00   0.0000000E+00   0.0000000E+00   0.0000000E+00   0.0000000E+00   0.0000000E+00   0.0000000E+00   0.0000000E+00   0.0000000E+00   0.0000000E+00   0.0000000E+00   0.0000000E+00   0.0000000E+00   0.0000000E+00   0.0000000E+00   0.0000000E+00   0.0000000E+00   0.0000000E+00   0.0000000E+00   0.0000000E+00   0.0000000E+00   0.0000000E+00   0.0000000E+00   0.0000000E+00   0.0000000E+00
     0.0000000E+00   0.0000000E+00   0.0000000E+00   0.0000000E+00   0.0000000E+00   0.0000000E+00   0.0000000E+00   0.0000000E+00   0.0000000E+00   0.0000000E+00   0.0000000E+00   0.0000000E+00   0.0000000E+00   0.0000000E+00   0.0000000E+00   0.0000000E+00   0.0000000E+00   0.0000000E+00   0.0000000E+00   0.0000000E+00   0.0000000E+00   0.0000000E+00   0.0000000E+00   0.0000000E+00   0.0000000E+00   0.0000000E+00   0.0000000E+00   0.0000000E+00   0.0000000E+00   0.0000000E+00   0.0000000E+00   0.0000000E+00   0.0000000E+00   0.0000000E+00   0.0000000E+00   0.0000000E+00   0.0000000E+00   0.0000000E+00   0.0000000E+00   0.0000000E+00   0.0000000E+00   0.0000000E+00   0.0000000E+00   0.0000000E+00   0.0000000E+00   0.0000000E+00   0.0000000E+00   0.0000000E+00   0.0000000E+00   0.0000000E+00   0.0000000E+00   0.0000000E+00   0.0000000E+00   0.0000000E+00   0.0000000E+00   0.0000000E+00   0.0000000E+00   0.0000000E+00   0.0000000E+00   0.0000000E+00   0.0000000E+00   0.0000000E+00   0.0000000E+00   0.0000000E+00   0.0000000E+00   0.0000000E+00   0.0000000E+00
     0.0000000E+00   0.0000000E+00   0.0000000E+00   0.0000000E+00   0.0000000E+00   0.0000000E+00   0.0000000E+00   0.0000000E+00   0.0000000E+00   0.0000000E+00   0.0000000E+00   0.0000000E+00   0.0000000E+00   0.0000000E+00   0.0000000E+00   0.0000000E+00   0.0000000E+00   0.0000000E+00   0.0000000E+00   0.0000000E+00   0.0000000E+00   0.0000000E+00   0.0000000E+00   0.0000000E+00   0.0000000E+00   0.0000000E+00   0.0000000E+00   0.0000000E+00   0.0000000E+00   0.0000000E+00   0.0000000E+00   0.0000000E+00   0.0000000E+00   0.0000000E+00   0.0000000E+00   0.0000000E+00   0.0000000E+00   0.0000000E+00   0.0000000E+00   0.0000000E+00   0.0000000E+00   0.0000000E+00   0.0000000E+00   0.0000000E+00   0.0000000E+00   0.0000000E+00   0.0000000E+00   0.0000000E+00   0.0000000E+00   0.0000000E+00   0.0000000E+00   0.0000000E+00   0.0000000E+00   0.0000000E+00   0.0000000E+00   0.0000000E+00   0.0000000E+00   0.0000000E+00   0.0000000E+00   0.0000000E+00   0.0000000E+00   0.0000000E+00   0.0000000E+00   0.0000000E+00   0.0000000E+00   0.0000000E+00   0.0000000E+00
     0.0000000E+00   0.0000000E+00   0.0000000E+00   0.0000000E+00   0.0000000E+00   0.0000000E+00   0.0000000E+00   0.0000000E+00   0.0000000E+00   0.0000000E+00   0.0000000E+00   0.0000000E+00   0.0000000E+00   0.0000000E+00   0.0000000E+00   0.0000000E+00   0.0000000E+00   0.0000000E+00   0.0000000E+00   0.0000000E+00   0.0000000E+00   0.0000000E+00   0.0000000E+00   0.0000000E+00   0.0000000E+00   0.0000000E+00   0.0000000E+00   0.0000000E+00   0.0000000E+00   0.0000000E+00   0.0000000E+00   0.0000000E+00   0.0000000E+00   0.0000000E+00   0.0000000E+00   0.0000000E+00   0.0000000E+00   0.0000000E+00   0.0000000E+00   0.0000000E+00   0.0000000E+00   0.0000000E+00   0.0000000E+00   0.0000000E+00   0.0000000E+00   0.0000000E+00   0.0000000E+00   0.0000000E+00   0.0000000E+00   0.0000000E+00   0.0000000E+00   0.0000000E+00   0.0000000E+00   0.0000000E+00   0.0000000E+00   0.0000000E+00   0.0000000E+00   0.0000000E+00   0.0000000E+00   0.0000000E+00   0.0000000E+00   0.0000000E+00   0.0000000E+00   0.0000000E+00   0.0000000E+00   0.0000000E+00   0.0000000E+00
     0.0000000E+00   0.0000000E+00   0.0000000E+00   0.0000000E+00   0.0000000E+00   0.0000000E+00   0.0000000E+00   0.0000000E+00   0.0000000E+00   0.0000000E+00   0.0000000E+00   0.0000000E+00   0.0000000E+00   0.0000000E+00   0.0000000E+00   0.0000000E+00   0.0000000E+00   0.0000000E+00   0.0000000E+00   0.0000000E+00   0.0000000E+00   0.0000000E+00   0.0000000E+00   0.0000000E+00   0.0000000E+00   0.0000000E+00   0.0000000E+00   0.0000000E+00   0.0000000E+00   0.0000000E+00   0.0000000E+00   0.0000000E+00   0.0000000E+00   0.0000000E+00   0.0000000E+00   0.0000000E+00   0.0000000E+00   0.0000000E+00   0.0000000E+00   0.0000000E+00   0.0000000E+00   0.0000000E+00   0.0000000E+00   0.0000000E+00   0.0000000E+00   0.0000000E+00   0.0000000E+00   0.0000000E+00   0.0000000E+00   0.0000000E+00   0.0000000E+00   0.0000000E+00   0.0000000E+00   0.0000000E+00   0.0000000E+00   0.0000000E+00   0.0000000E+00   0.0000000E+00   0.0000000E+00   0.0000000E+00   0.0000000E+00   0.0000000E+00   0.0000000E+00   0.0000000E+00   0.0000000E+00   0.0000000E+00   0.0000000E+00
     0.0000000E+00   0.0000000E+00   0.0000000E+00   0.0000000E+00   0.0000000E+00   0.0000000E+00   0.0000000E+00   0.0000000E+00   0.0000000E+00   0.0000000E+00   0.0000000E+00   0.0000000E+00   0.0000000E+00   0.0000000E+00   0.0000000E+00   0.0000000E+00   0.0000000E+00   0.0000000E+00   0.0000000E+00   0.0000000E+00   0.0000000E+00   0.0000000E+00   0.0000000E+00   0.0000000E+00   0.0000000E+00   0.0000000E+00   0.0000000E+00   0.0000000E+00   0.0000000E+00   0.0000000E+00   0.0000000E+00   0.0000000E+00   0.0000000E+00   0.0000000E+00   0.0000000E+00   0.0000000E+00   0.0000000E+00   0.0000000E+00   0.0000000E+00   0.0000000E+00   0.0000000E+00   0.0000000E+00   0.0000000E+00   0.0000000E+00   0.0000000E+00   0.0000000E+00   0.0000000E+00   0.0000000E+00   0.0000000E+00   0.0000000E+00   0.0000000E+00   0.0000000E+00   0.0000000E+00   0.0000000E+00   0.0000000E+00   0.0000000E+00   0.0000000E+00   0.0000000E+00   0.0000000E+00   0.0000000E+00   0.0000000E+00   0.0000000E+00   0.0000000E+00   0.0000000E+00   0.0000000E+00   0.0000000E+00   0.0000000E+00
     3.4535783E-05  -1.4542021E-03  -5.3458462E-04   2.3046113E-03  -2.2433555E-03   1.0705324E-04   0.0000000E+00   4.1159964E-23   1.6830906E-04   0.0000000E+00   0.0000000E+00   0.0000000E+00   0.0000000E+00   0.0000000E+00   0.0000000E+00   0.0000000E+00   0.0000000E+00   0.0000000E+00   0.0000000E+00   0.0000000E+00   0.0000000E+00   0.0000000E+00   0.0000000E+00   0.0000000E+00   0.0000000E+00   0.0000000E+00   0.0000000E+00   0.0000000E+00   0.0000000E+00   0.0000000E+00   0.0000000E+00   0.0000000E+00   0.0000000E+00   0.0000000E+00   0.0000000E+00   0.0000000E+00   0.0000000E+00   0.0000000E+00   0.0000000E+00   0.0000000E+00   0.0000000E+00   0.0000000E+00   0.0000000E+00   0.0000000E+00   0.0000000E+00   0.0000000E+00   0.0000000E+00   0.0000000E+00   0.0000000E+00   0.0000000E+00   0.0000000E+00   0.0000000E+00   0.0000000E+00   0.0000000E+00   0.0000000E+00   0.0000000E+00   0.0000000E+00   0.0000000E+00   0.0000000E+00   0.0000000E+00   0.0000000E+00   0.0000000E+00   0.0000000E+00   0.0000000E+00   0.0000000E+00   0.0000000E+00   0.0000000E+00